/*--------------------------------*- C++ -*----------------------------------*\
| =========                 |                                                 |
| \\      /  F ield         | foam-extend: Open Source CFD                    |
|  \\    /   O peration     | Version:     3.1-sfb1194                        |
|   \\  /    A nd           | Web:         http://www.extend-project.de       |
|    \\/     M anipulation  |                                                 |
\*---------------------------------------------------------------------------*/
FoamFile
{
    version     2.0;
    format      ascii;
    class       volScalarField;
    location    "0";
    object      curvature;
}
// * * * * * * * * * * * * * * * * * * * * * * * * * * * * * * * * * * * * * //

dimensions      [0 -1 0 0 0 0 0];

internalField   uniform 0;

boundaryField
{
    interface
    {
        type            calculated;
        value           nonuniform List<scalar> 
100
(
3997.129683556253
3997.03234744285
3996.924911858155
3996.805778645507
3996.674438519606
3996.527183175014
3996.36339174865
3996.179329844672
3995.970768214885
3995.734562874673
3995.463512220996
3995.151231052873
3994.786952404488
3994.356791459877
3993.843923736702
3993.220484022084
3992.448203900214
3991.468338477378
3990.184888335225
3988.433081365426
3985.90366661488
3981.936814229703
3974.827225585915
3958.420923239433
3820.611493403759
3820.610705159505
3958.420649725427
3974.827060300746
3981.9366959571
3985.903574662985
3988.433006264225
3990.184824964472
3991.468283756616
3992.448155832476
3993.220441239279
3993.843885260759
3994.35675656756
3994.786920546047
3995.151201800781
3995.463485236358
3995.734537884405
3995.970744995835
3996.179308212248
3996.363371548447
3996.52716427679
3996.67442081247
3996.80576203436
3996.924896260981
3997.032332788393
3997.129669782416
3997.218769628763
3997.299046897106
3997.372807135194
3997.440523918843
3997.50172463632
3997.558239814005
3997.609650510089
3997.656739821558
3997.699739519066
3997.739130026715
3997.775475794553
3997.807650696087
3997.837147894354
3997.864179265851
3997.888004745711
3997.90938065924
3997.928474155916
3997.94491382393
3997.959241906473
3997.971693047795
3997.981755844287
3997.989610715662
3997.995902958672
3997.999022136073
3998.001632663783
3998.001632876821
3997.999022775569
3997.995904025776
3997.989612212313
3997.981757773198
3997.971695412527
3997.959244711413
3997.944917074371
3997.928477858078
3997.909384820372
3997.888009374079
3997.864184370897
3997.837153486767
3997.807656787892
3997.775482399285
3997.739137159452
3997.699747196792
3997.656748063173
3997.609659336752
3997.558249249389
3997.501734706938
3997.440534654383
3997.372818568976
3997.299059066702
3997.218782576525
)
;
    }
    space
    {
        type            calculated;
        value           uniform 0;
    }
}


// ************************************************************************* //
