/*--------------------------------*- C++ -*----------------------------------*\
| =========                 |                                                 |
| \\      /  F ield         | foam-extend: Open Source CFD                    |
|  \\    /   O peration     | Version:     4.1                                |
|   \\  /    A nd           | Web:         http://www.foam-extend.org         |
|    \\/     M anipulation  |                                                 |
\*---------------------------------------------------------------------------*/
FoamFile
{
    version     2.0;
    format      ascii;
    class       volScalarField;
    location    "0";
    object      KVf;
}
// * * * * * * * * * * * * * * * * * * * * * * * * * * * * * * * * * * * * * //

dimensions      [0 -1 0 0 0 0 0];

internalField   uniform 0;

boundaryField
{
    interface
    {
        type            calculated;
        value           nonuniform List<scalar> 
80
(
3883.155666245115
3900.688551917809
3944.195369005127
3915.429279454131
3908.647255073909
3900.399883779742
3890.201592409792
3877.323466770888
3860.621003597771
3838.190694361691
3806.650653014489
3759.851814466818
3671.499318683807
3561.241722761799
3561.241722761799
3561.242451794698
3561.242451794698
3671.499630309365
3759.852060430241
3806.650847729853
3838.190854848525
3860.621139506567
3877.323584114968
3890.201695188301
3900.399974782184
3908.647336319166
3915.429352443931
3944.195436272085
3900.68866272059
3883.155606956107
4022.408535834059
3974.675401229085
3888.235928297373
3937.913765119964
3939.363552646216
3940.691846176716
3941.908231464105
3943.022294316818
3944.041894882416
3944.973597918646
3945.824079865859
3946.598031931561
3947.299705604393
3947.934502086747
3948.505769705127
3949.01503453585
3949.465950154126
3949.862292932135
3950.204501598114
3950.494297727447
3950.734374225525
3950.924799803985
3951.066563067086
3951.161003625816
3951.207935759968
3951.207934879644
3951.161000984748
3951.066558663102
3950.924793633691
3950.734366281592
3950.494288001645
3950.204490082589
3949.862279613233
3949.465935015518
3949.015017561475
3948.505750876897
3947.934481379242
3947.299682987232
3946.598007372909
3945.824053330068
3944.973569361542
3944.04186425413
3943.022261561413
3941.9081965164
3940.691808963483
3939.363513082623
3937.913723109122
3888.235886343632
3974.675223252119
4022.408515435395
)
;
    }
    space
    {
        type            calculated;
        value           uniform 0;
    }
    lowerWedge
    {
        type            wedge;
    }
    upperWedge
    {
        type            wedge;
    }
    centerline
    {
        type            symmetryPlane;
        value           uniform 0;
    }
}


// ************************************************************************* //
