/*--------------------------------*- C++ -*----------------------------------*\
| =========                 |                                                 |
| \\      /  F ield         | foam-extend: Open Source CFD                    |
|  \\    /   O peration     | Version:     4.0                                |
|   \\  /    A nd           | Web:         http://www.foam-extend.org         |
|    \\/     M anipulation  |                                                 |
\*---------------------------------------------------------------------------*/
FoamFile
{
    version     2.0;
    format      ascii;
    class       volScalarField;
    location    "0";
    object      curvature;
}
// * * * * * * * * * * * * * * * * * * * * * * * * * * * * * * * * * * * * * //

dimensions      [0 -1 0 0 0 0 0];

internalField   uniform 0;

boundaryField
{
    interface
    {
        type            calculated;
        value           nonuniform List<scalar> 
80
(
982.4712923868591
981.4602501745952
980.270002341439
978.8569900775818
977.161397739633
975.099377526113
972.5494503111544
969.3290702711079
965.1511735632416
959.5362036631151
951.6189299674927
939.6639507284307
919.6045204865129
879.1479379207983
633.6398622590825
633.6399011210389
879.1479570990572
919.6045331791901
939.6639601804283
951.6189374678692
959.536209853805
965.1511788099774
969.3290748018837
972.5494542775494
975.0993810339169
977.1614008654934
978.8569928787275
980.2700048616298
981.4602524479709
982.4712944404912
983.1770832260478
983.6503894002288
984.0828427627828
984.4784177300585
984.8408638174341
985.1729120759094
985.4770517604584
985.7555672380735
986.010468153071
986.2433212231326
986.4560078653054
986.6495381050066
986.8248794658822
986.9835403675861
987.1264357694419
987.2537884776934
987.3663508813971
987.4655686663241
987.5511540633421
987.6234709504441
987.6836163906503
987.7311430769463
987.766574865826
987.7902625433227
987.801897842356
987.8018978109061
987.7902624489199
987.7665747083073
987.7311428560375
987.683616105965
987.6234706014808
987.5511536494755
987.4655681868062
987.3663503353466
987.2537878640903
987.1264350871134
986.9835396151968
986.8248786419282
986.6495372077901
986.4560068929286
986.2433201734594
986.010467023725
985.7555660264045
985.4770504635007
985.172910690351
984.8408623395826
984.4784161557728
984.0828410874371
983.6503876186135
983.1770813323092
)
;
    }
    space
    {
        type            calculated;
        value           uniform 0;
    }
    lowerWedge
    {
        type            wedge;
    }
    upperWedge
    {
        type            wedge;
    }
    centerline
    {
        type            symmetryPlane;
        value           uniform 0;
    }
}


// ************************************************************************* //
