/*--------------------------------*- C++ -*----------------------------------*\
| =========                 |                                                 |
| \\      /  F ield         | foam-extend: Open Source CFD                    |
|  \\    /   O peration     | Version:     4.0                                |
|   \\  /    A nd           | Web:         http://www.foam-extend.org         |
|    \\/     M anipulation  |                                                 |
\*---------------------------------------------------------------------------*/
FoamFile
{
    version     2.0;
    format      ascii;
    class       volScalarField;
    location    "0";
    object      curvatureNew;
}
// * * * * * * * * * * * * * * * * * * * * * * * * * * * * * * * * * * * * * //

dimensions      [0 -1 0 0 0 0 0];

internalField   uniform 0;

boundaryField
{
    interface
    {
        type            calculated;
        value           nonuniform List<scalar> 
80
(
982.471292386859
981.4602501745952
980.2700023414391
978.8569900775819
977.161397739633
975.099377526113
972.5494503111545
969.329070271108
965.1511735632416
959.536203663115
951.6189299674928
939.6639507284306
919.6045204865129
879.1479379207982
633.6398622590825
633.6399011210389
879.1479570990571
919.6045331791901
939.6639601804283
951.6189374678693
959.536209853805
965.1511788099773
969.3290748018837
972.5494542775496
975.0993810339166
977.1614008654933
978.8569928787274
980.2700048616298
981.4602524479708
982.4712944404912
983.1770832260479
983.6503894002287
984.0828427627829
984.4784177300585
984.840863817434
985.1729120759094
985.4770517604584
985.7555672380736
986.0104681530711
986.2433212231327
986.4560078653054
986.6495381050066
986.8248794658823
986.9835403675861
987.126435769442
987.2537884776934
987.366350881397
987.4655686663241
987.551154063342
987.6234709504441
987.6836163906504
987.7311430769464
987.7665748658261
987.7902625433226
987.8018978423561
987.8018978109061
987.7902624489201
987.7665747083073
987.7311428560375
987.683616105965
987.6234706014808
987.5511536494753
987.4655681868062
987.3663503353467
987.2537878640902
987.1264350871134
986.9835396151967
986.8248786419281
986.64953720779
986.4560068929287
986.2433201734593
986.0104670237249
985.7555660264045
985.4770504635007
985.1729106903513
984.8408623395826
984.4784161557729
984.0828410874373
983.6503876186134
983.1770813323093
)
;
    }
    space
    {
        type            calculated;
        value           uniform 0;
    }
    lowerWedge
    {
        type            wedge;
    }
    upperWedge
    {
        type            wedge;
    }
    centerline
    {
        type            symmetryPlane;
        value           uniform 0;
    }
}


// ************************************************************************* //
